<?xml version="1.0" encoding="UTF-8"?>

<!-- generated on 2023-01-03 12:48:13 by Eclipse SUMO sumo Version 1.15.0
<configuration xmlns:xsi="http://www.w3.org/2001/XMLSchema-instance" xsi:noNamespaceSchemaLocation="http://sumo.dlr.de/xsd/sumoConfiguration.xsd">

    <input>
        <net-file value="C:\Users\gueye\Sumo\2023-01-03-12-47-57\osm.net.xml.gz"/>
        <route-files value="C:\Users\gueye\Sumo\2023-01-03-12-47-57\trips.trips.xml"/>
        <additional-files value="C:\Users\gueye\Sumo\2023-01-03-12-47-57\osm_stops.add.xml"/>
    </input>

    <output>
        <vehroute-output value="C:\Users\gueye\Sumo\2023-01-03-12-47-57\vehroutes.xml"/>
        <stop-output value="C:\Users\gueye\Sumo\2023-01-03-12-47-57\stopinfos.xml"/>
    </output>

    <time>
        <begin value="0"/>
    </time>

    <processing>
        <ignore-route-errors value="true"/>
    </processing>

    <routing>
        <device.rerouting.adaptation-interval value="0"/>
    </routing>

    <report>
        <aggregate-warnings value="5"/>
        <error-log value="C:\Users\gueye\Sumo\2023-01-03-12-47-57\trips.trips.xml.errorlog"/>
        <no-step-log value="true"/>
    </report>

</configuration>
-->

<routes xmlns:xsi="http://www.w3.org/2001/XMLSchema-instance" xsi:noNamespaceSchemaLocation="http://sumo.dlr.de/xsd/routes_file.xsd">
    <vehicle id="2_bus_3:0" type="pt_bus" depart="52.00" departLane="0" arrival="99.00">
        <route edges="884890355#0"/>
        <stop busStop="10068241858" duration="30.00"/>
    </vehicle>

    <vehicle id="1_bus_1:0" type="pt_bus" depart="17.00" departLane="1" arrival="196.00">
        <route edges="197335659#0 197335659#2 197335659#4 197335659#5 1006730649#0 893426051#0 893426051#1 893426051#2 893426051#3 71599403#0 71599403#1 71599403#2 48566227#2 965010804 263476550#0 263476550#1 263476550#2 1003930780#0 -541164732#1 -47007849#5 -47007849#4 -47007849#3 -47007849#2 -47007849#1 -47007849#0 70881094#0 70881094#1"/>
        <stop busStop="10031759026" duration="30.00"/>
    </vehicle>

    <vehicle id="5_bus_4:0" type="pt_bus" depart="165.00" departLane="0" arrival="207.00">
        <route edges="843217893#0"/>
        <stop busStop="2323330805" duration="30.00"/>
    </vehicle>

    <vehicle id="0_bus_C2:0" type="pt_bus" depart="15.00" departLane="1" arrival="300.00">
        <route edges="-41601194#4 -41601194#3 -41601194#2 -41601194#1 -41601194#0 -243167820#5 5008797#0 5008797#1 5008797#2 5008797#3 5008797#4 5008797#5 12149919#0 12149919#1 12149919#2 12149919#3 12149919#4 884896938#1 74201104 229209068#0 229209068#1 229209068#2 229209068#5 229209068#6 229209068#7 229209068#8 229209068#9 1033555794 87691911#0 1033583298 -288956576#1 -884899260#1 -1121868643 -197335669 1121868644"/>
        <stop busStop="-9561454679" duration="30.00"/>
    </vehicle>

    <vehicle id="7_bus_5:0" type="pt_bus" depart="303.00" departLane="0" arrival="344.00">
        <route edges="263478255#0"/>
        <stop busStop="2076200229" duration="30.00"/>
    </vehicle>

    <vehicle id="6_bus_3:1" type="pt_bus" depart="253.00" departLane="1" arrival="435.00">
        <route edges="197335659#0 197335659#2 197335659#4 197335659#5 1006730649#0 893426052#0 880255678#0 5007465#0 5007465#1 965125129 965124966#0 541155617#0 541155617#1 541155617#2 209977258#3 209977258#4 209977258#5 209977258#6 -263478933#5 -263478933#3 -263478933#2 -263478933#1 -263478933#0"/>
        <stop busStop="10031759026" duration="30.00"/>
    </vehicle>

    <vehicle id="3_tram_A:0" type="pt_tram" depart="131.00" departLane="0" arrival="498.00">
        <route edges="303674884#2 264565627#1 264565627#2 264565627#3 264565627#4 264565627#5 264565627#6 264565627#7 264565627#8 264565627#9 264565627#10 264565627#11 264565627#12 264565627#13 264565627#14 264565627#15 264565627#16 264565627#17 537772768#0 537772768#1 537761430#0 537761430#1 537761430#2 537761430#3 537761430#4 537761430#5 537761434#0 537761434#1 537761434#2 537761434#3 537761434#5 537761434#6 537761434#7 537761434#8 537761434#11 537761434#12 537761434#13 537761434#14 537761434#15 537761434#16 537761434#17 537761434#18 537761434#19"/>
        <stop busStop="1575694296" duration="30.00"/>
    </vehicle>

    <vehicle id="4_tram_B:0" type="pt_tram" depart="138.00" departLane="0" arrival="500.00">
        <route edges="303674884#2 264565627#1 264565627#2 264565627#3 264565627#4 264565627#5 264565627#6 264565627#7 264565627#8 264565627#9 264565627#10 264565627#11 264565627#12 264565627#13 264565627#14 264565627#15 264565627#16 264565627#17 537772768#0 537772768#1 537761430#0 537761430#1 537761430#2 537761430#3 537761430#4 537761430#5 537761434#0 537761434#1 537761434#2 537761434#3 537761434#5 537761434#6 537761434#7 537761434#8 537761434#11 537761434#12 537761434#13 537761434#14 537761434#15 537761434#16 537761434#17 537761434#18 537761434#19"/>
        <stop busStop="1575694296" duration="30.00"/>
    </vehicle>

    <vehicle id="8_tram_B:1" type="pt_tram" depart="383.00" departLane="0" arrival="522.00">
        <route edges="575295082#0"/>
        <stop busStop="2068674747" duration="30.00"/>
    </vehicle>

    <vehicle id="11_bus_1:1" type="pt_bus" depart="535.00" departLane="1" arrival="585.00">
        <route edges="264822929"/>
        <stop busStop="10028128819" duration="30.00"/>
    </vehicle>

    <vehicle id="10_bus_C2:1" type="pt_bus" depart="441.00" departLane="2" arrival="744.00">
        <route edges="-1121868644 197335669 1121868643 884899260#0 884898735#1 630306072 905856180#0 905856180#1 242316872#0 74354626#0 74354626#1 74354626#2 197335670#0 197335670#1 843217893#0 263478255#0 41601195#1 41601195#2 41601195#4 927176956#0 230154508#0 230154508#1 987933713 1033551663#0 243167820#1 243167820#2 243167820#3 243167820#4 243167820#5 41601194#0 41601194#1 41601194#2 41601194#3 41601194#4"/>
        <stop busStop="9557478321" duration="30.00"/>
    </vehicle>

    <vehicle id="9_tram_A:1" type="pt_tram" depart="406.00" departLane="0" arrival="980.00">
        <route edges="575295082#0 575295082#1 575295082#2 575295082#3 575295082#4 575295082#5 575295082#6 575295082#7 575295082#8 575295082#11 575295082#12 575295082#13 575295082#14 575295082#16 575295082#17 575295082#18 575295082#19 537761428#0 537761428#1 537761428#2 537761428#3 537761428#4 537761428#5 537761426#0 537761426#1 537772767#0 537772767#1 537772767#2 537772767#3 537772767#4 537772767#5 537772767#6 537772767#7 537772767#8 537772767#9 537772767#10 537772767#11 537772767#12 537772767#13 537772767#14 537772767#15 537772767#16 537772767#17"/>
        <stop busStop="2068674747" duration="30.00"/>
    </vehicle>

</routes>
